<?xml version="1.0"?>
<VTKFile type="UnstructuredGrid" version="0.1" byte_order="LittleEndian">
  <UnstructuredGrid>
    <Piece NumberOfCells="20" NumberOfPoints="80">
      <PointData Vectors="displacement">
        <DataArray type="Float32" Name="displacement" NumberOfComponents="3" format="ascii">
          0 0 0 0.000239358 0.000365128 0 0 0 0 -0.000239358 0.000365128 0
          0.000239358 0.000365128 0 0.000466606 0.00143012 0 -0.000239358 0.000365128 0 -0.000466606 0.00143012 0
          0.000466606 0.00143012 0 0.000681591 0.00315845 0 -0.000466606 0.00143012 0 -0.000681591 0.00315845 0
          0.000681591 0.00315845 0 0.000884293 0.00551331 0 -0.000681591 0.00315845 0 -0.000884293 0.00551331 0
          0.000884293 0.00551331 0 0.00107471 0.00845785 0 -0.000884293 0.00551331 0 -0.00107471 0.00845785 0
          0.00107471 0.00845785 0 0.00125284 0.0119552 0 -0.00107471 0.00845785 0 -0.00125284 0.0119552 0
          0.00125284 0.0119552 0 0.00141869 0.0159686 0 -0.00125284 0.0119552 0 -0.00141869 0.0159686 0
          0.00141869 0.0159686 0 0.00157225 0.020461 0 -0.00141869 0.0159686 0 -0.00157225 0.020461 0
          0.00157225 0.020461 0 0.00171353 0.0253957 0 -0.00157225 0.020461 0 -0.00171353 0.0253957 0
          0.00171353 0.0253957 0 0.00184252 0.0307358 0 -0.00171353 0.0253957 0 -0.00184252 0.0307358 0
          0.00184252 0.0307358 0 0.00195923 0.0364445 0 -0.00184252 0.0307358 0 -0.00195923 0.0364445 0
          0.00195923 0.0364445 0 0.00206365 0.0424849 0 -0.00195923 0.0364445 0 -0.00206365 0.0424849 0
          0.00206365 0.0424849 0 0.00215579 0.0488201 0 -0.00206365 0.0424849 0 -0.00215579 0.0488201 0
          0.00215579 0.0488201 0 0.00223564 0.0554132 0 -0.00215579 0.0488201 0 -0.00223564 0.0554132 0
          0.00223564 0.0554132 0 0.00230321 0.0622276 0 -0.00223564 0.0554132 0 -0.00230321 0.0622276 0
          0.00230321 0.0622276 0 0.00235849 0.0692262 0 -0.00230321 0.0622276 0 -0.00235849 0.0692262 0
          0.00235849 0.0692262 0 0.00240149 0.0763722 0 -0.00235849 0.0692262 0 -0.00240149 0.0763722 0
          0.00240149 0.0763722 0 0.00243221 0.0836288 0 -0.00240149 0.0763722 0 -0.00243221 0.0836288 0
          0.00243221 0.0836288 0 0.00245066 0.0909591 0 -0.00243221 0.0836288 0 -0.00245066 0.0909591 0
          0.00245066 0.0909591 0 0.002457 0.0983267 0 -0.00245066 0.0909591 0 -0.002457 0.0983267 0
        </DataArray>
      </PointData>
      <Points>
        <DataArray type="Float32" Name="Coordinates" NumberOfComponents="3" format="ascii">
          0 0 0 0.3 0 0 0 0.2 0 0.3 0.2 0
          0.3 0 0 0.6 0 0 0.3 0.2 0 0.6 0.2 0
          0.6 0 0 0.9 0 0 0.6 0.2 0 0.9 0.2 0
          0.9 0 0 1.2 0 0 0.9 0.2 0 1.2 0.2 0
          1.2 0 0 1.5 0 0 1.2 0.2 0 1.5 0.2 0
          1.5 0 0 1.8 0 0 1.5 0.2 0 1.8 0.2 0
          1.8 0 0 2.1 0 0 1.8 0.2 0 2.1 0.2 0
          2.1 0 0 2.4 0 0 2.1 0.2 0 2.4 0.2 0
          2.4 0 0 2.7 0 0 2.4 0.2 0 2.7 0.2 0
          2.7 0 0 3 0 0 2.7 0.2 0 3 0.2 0
          3 0 0 3.3 0 0 3 0.2 0 3.3 0.2 0
          3.3 0 0 3.6 0 0 3.3 0.2 0 3.6 0.2 0
          3.6 0 0 3.9 0 0 3.6 0.2 0 3.9 0.2 0
          3.9 0 0 4.2 0 0 3.9 0.2 0 4.2 0.2 0
          4.2 0 0 4.5 0 0 4.2 0.2 0 4.5 0.2 0
          4.5 0 0 4.8 0 0 4.5 0.2 0 4.8 0.2 0
          4.8 0 0 5.1 0 0 4.8 0.2 0 5.1 0.2 0
          5.1 0 0 5.4 0 0 5.1 0.2 0 5.4 0.2 0
          5.4 0 0 5.7 0 0 5.4 0.2 0 5.7 0.2 0
          5.7 0 0 6 0 0 5.7 0.2 0 6 0.2 0
        </DataArray>
      </Points>
      <Cells>
        <DataArray type="Int32" Name="connectivity" NumberOfComponents="1" format="ascii">
          0 1 3 2 4 5 7 6 8 9 11 10
          12 13 15 14 16 17 19 18 20 21 23 22
          24 25 27 26 28 29 31 30 32 33 35 34
          36 37 39 38 40 41 43 42 44 45 47 46
          48 49 51 50 52 53 55 54 56 57 59 58
          60 61 63 62 64 65 67 66 68 69 71 70
          72 73 75 74 76 77 79 78
        </DataArray>
        <DataArray type="Int32" Name="offsets" NumberOfComponents="1" format="ascii">
          4 8 12 16 20 24 28 32 36 40 44 48
          52 56 60 64 68 72 76 80
        </DataArray>
        <DataArray type="UInt8" Name="types" NumberOfComponents="1" format="ascii">
          9 9 9 9 9 9 9 9 9 9 9 9
          9 9 9 9 9 9 9 9
        </DataArray>
      </Cells>
    </Piece>
  </UnstructuredGrid>
</VTKFile>
