<?xml version="1.0"?>
<VTKFile type="UnstructuredGrid" version="0.1" byte_order="LittleEndian">
  <UnstructuredGrid>
    <Piece NumberOfCells="20" NumberOfPoints="80">
      <PointData Vectors="displacement">
        <DataArray type="Float32" Name="displacement" NumberOfComponents="3" format="ascii">
          0 0 0 0.000263104 0.000401191 0 0 0 0 -0.000263104 0.000401191 0
          0.000263104 0.000401191 0 0.000512834 0.00157149 0 -0.000263104 0.000401191 0 -0.000512834 0.00157149 0
          0.000512834 0.00157149 0 0.000749082 0.00347073 0 -0.000512834 0.00157149 0 -0.000749082 0.00347073 0
          0.000749082 0.00347073 0 0.000971831 0.00605847 0 -0.000749082 0.00347073 0 -0.000971831 0.00605847 0
          0.000971831 0.00605847 0 0.00118108 0.0092942 0 -0.000971831 0.00605847 0 -0.00118108 0.0092942 0
          0.00118108 0.0092942 0 0.00137683 0.0131374 0 -0.00118108 0.0092942 0 -0.00137683 0.0131374 0
          0.00137683 0.0131374 0 0.00155908 0.0175477 0 -0.00137683 0.0131374 0 -0.00155908 0.0175477 0
          0.00155908 0.0175477 0 0.00172783 0.0224844 0 -0.00155908 0.0175477 0 -0.00172783 0.0224844 0
          0.00172783 0.0224844 0 0.00188308 0.0279071 0 -0.00172783 0.0224844 0 -0.00188308 0.0279071 0
          0.00188308 0.0279071 0 0.00202483 0.0337754 0 -0.00188308 0.0279071 0 -0.00202483 0.0337754 0
          0.00202483 0.0337754 0 0.00215308 0.0400486 0 -0.00202483 0.0337754 0 -0.00215308 0.0400486 0
          0.00215308 0.0400486 0 0.00226783 0.0466863 0 -0.00215308 0.0400486 0 -0.00226783 0.0466863 0
          0.00226783 0.0466863 0 0.00236908 0.0536481 0 -0.00226783 0.0466863 0 -0.00236908 0.0536481 0
          0.00236908 0.0536481 0 0.00245683 0.0608933 0 -0.00236908 0.0536481 0 -0.00245683 0.0608933 0
          0.00245683 0.0608933 0 0.00253108 0.0683816 0 -0.00245683 0.0608933 0 -0.00253108 0.0683816 0
          0.00253108 0.0683816 0 0.00259183 0.0760723 0 -0.00253108 0.0683816 0 -0.00259183 0.0760723 0
          0.00259183 0.0760723 0 0.00263908 0.083925 0 -0.00259183 0.0760723 0 -0.00263908 0.083925 0
          0.00263908 0.083925 0 0.00267283 0.0918993 0 -0.00263908 0.083925 0 -0.00267283 0.0918993 0
          0.00267283 0.0918993 0 0.0026931 0.0999546 0 -0.00267283 0.0918993 0 -0.0026931 0.0999546 0
          0.0026931 0.0999546 0 0.0027 0.108051 0 -0.0026931 0.0999546 0 -0.0027 0.108051 0
        </DataArray>
      </PointData>
      <Points>
        <DataArray type="Float32" Name="Coordinates" NumberOfComponents="3" format="ascii">
          0 0 0 0.3 0 0 0 0.2 0 0.3 0.2 0
          0.3 0 0 0.6 0 0 0.3 0.2 0 0.6 0.2 0
          0.6 0 0 0.9 0 0 0.6 0.2 0 0.9 0.2 0
          0.9 0 0 1.2 0 0 0.9 0.2 0 1.2 0.2 0
          1.2 0 0 1.5 0 0 1.2 0.2 0 1.5 0.2 0
          1.5 0 0 1.8 0 0 1.5 0.2 0 1.8 0.2 0
          1.8 0 0 2.1 0 0 1.8 0.2 0 2.1 0.2 0
          2.1 0 0 2.4 0 0 2.1 0.2 0 2.4 0.2 0
          2.4 0 0 2.7 0 0 2.4 0.2 0 2.7 0.2 0
          2.7 0 0 3 0 0 2.7 0.2 0 3 0.2 0
          3 0 0 3.3 0 0 3 0.2 0 3.3 0.2 0
          3.3 0 0 3.6 0 0 3.3 0.2 0 3.6 0.2 0
          3.6 0 0 3.9 0 0 3.6 0.2 0 3.9 0.2 0
          3.9 0 0 4.2 0 0 3.9 0.2 0 4.2 0.2 0
          4.2 0 0 4.5 0 0 4.2 0.2 0 4.5 0.2 0
          4.5 0 0 4.8 0 0 4.5 0.2 0 4.8 0.2 0
          4.8 0 0 5.1 0 0 4.8 0.2 0 5.1 0.2 0
          5.1 0 0 5.4 0 0 5.1 0.2 0 5.4 0.2 0
          5.4 0 0 5.7 0 0 5.4 0.2 0 5.7 0.2 0
          5.7 0 0 6 0 0 5.7 0.2 0 6 0.2 0
        </DataArray>
      </Points>
      <Cells>
        <DataArray type="Int32" Name="connectivity" NumberOfComponents="1" format="ascii">
          0 1 3 2 4 5 7 6 8 9 11 10
          12 13 15 14 16 17 19 18 20 21 23 22
          24 25 27 26 28 29 31 30 32 33 35 34
          36 37 39 38 40 41 43 42 44 45 47 46
          48 49 51 50 52 53 55 54 56 57 59 58
          60 61 63 62 64 65 67 66 68 69 71 70
          72 73 75 74 76 77 79 78
        </DataArray>
        <DataArray type="Int32" Name="offsets" NumberOfComponents="1" format="ascii">
          4 8 12 16 20 24 28 32 36 40 44 48
          52 56 60 64 68 72 76 80
        </DataArray>
        <DataArray type="UInt8" Name="types" NumberOfComponents="1" format="ascii">
          9 9 9 9 9 9 9 9 9 9 9 9
          9 9 9 9 9 9 9 9
        </DataArray>
      </Cells>
    </Piece>
  </UnstructuredGrid>
</VTKFile>
