<?xml version="1.0"?>
<VTKFile type="PolyData" version="0.1" byte_order="LittleEndian">
  <PolyData>
    <Piece NumberOfLines="12" NumberOfPoints="18">
      <PointData Vectors="displacement">
        <DataArray type="Float32" Name="displacement" NumberOfComponents="3" format="ascii">
          0 0 0 0 0 0 0 0 0 0 0 0
          0 0 0 0 0 0 0 0 0 0 0 0
          0 0 0 0 0 0 0 0 0 0 0 0
          0 0 0 0 0 0 0 0 0 0 0 0
          0 0 0 0 0 0
        </DataArray>
      </PointData>
      <Points>
        <DataArray type="Float32" Name="Coordinates" NumberOfComponents="3" format="ascii">
          0 1 0 0.5 1 0 1 1 0 1 1 0
          1.5 1 0 2 1 0 0 0 0 0.5 0.5 0
          1 1 0 1 0 0 1 0.5 0 1 1 0
          1 0 0 1.5 0.5 0 2 1 0 0 0 0
          0.5 0 0 1 0 0
        </DataArray>
      </Points>
      <Lines>
        <DataArray type="Int32" Name="connectivity" NumberOfComponents="1" format="ascii">
          0 1 1 2 3 4 4 5 6 7 7 8
          9 10 10 11 12 13 13 14 15 16 16 17
        </DataArray>
        <DataArray type="Int32" Name="offsets" NumberOfComponents="1" format="ascii">
          2 4 6 8 10 12 14 16 18 20 22 24
        </DataArray>
      </Lines>
    </Piece>
  </PolyData>
</VTKFile>
