<?xml version="1.0"?>
<VTKFile type="UnstructuredGrid" version="0.1" byte_order="LittleEndian">
  <UnstructuredGrid>
    <Piece NumberOfCells="32768" NumberOfPoints="30720">
      <PointData Vectors="displacement">
        <DataArray type="Float32" Name="displacement" NumberOfComponents="3" format="ascii">
          0 0 0 3.34798e-08 2.70118e-08 0 3.71536e-08 1.70133e-08 0 5.79926e-08 5.64905e-08 0
          5.65569e-08 4.12711e-08 0 4.95381e-08 2.26844e-08 0 7.35384e-08 8.84361e-08 0 6.69933e-08 6.79957e-08 0
          5.48651e-08 4.41881e-08 0 3.71536e-08 1.70133e-08 0 8.01172e-08 1.22848e-07 0 6.84628e-08 9.71872e-08 0
          5.12251e-08 6.81588e-08 0 2.84042e-08 3.5763e-08 0 0 0 0 0 0 0
          2.84042e-08 3.5763e-08 0 3.59263e-08 3.63766e-08 0 5.12251e-08 6.81588e-08 0 5.7665e-08 6.99681e-08 0
          6.39709e-08 7.22142e-08 0 6.84628e-08 9.71872e-08 0 7.38204e-08 1.00192e-07 0 7.9044e-08 1.03634e-07 0
          8.41338e-08 1.07513e-07 0 8.01172e-08 1.22848e-07 0 8.43925e-08 1.27049e-07 0 8.85339e-08 1.31687e-07 0
          9.25414e-08 1.36761e-07 0 9.64149e-08 1.42272e-07 0 0 0 0 3.59263e-08 3.63766e-08 0
          4.10516e-08 2.07928e-08 0 6.39709e-08 7.22142e-08 0 6.22622e-08 5.24528e-08 0 5.47354e-08 2.77237e-08 0
          8.41338e-08 1.07513e-07 0 7.55912e-08 8.35737e-08 0 6.12305e-08 5.46671e-08 0 4.10516e-08 2.07928e-08 0
          9.64149e-08 1.42272e-07 0 8.10384e-08 1.14156e-07 0 5.98438e-08 8.10713e-08 0 3.2831e-08 4.30195e-08 0
          0 0 0 0 0 0 3.2831e-08 4.30195e-08 0 4.11277e-08 4.18722e-08 0
          5.98438e-08 8.10713e-08 0 6.65621e-08 8.12366e-08 0 7.32893e-08 8.20432e-08 0 8.10384e-08 1.14156e-07 0
          8.61783e-08 1.15633e-07 0 9.1327e-08 1.17753e-07 0 9.64847e-08 1.20513e-07 0 9.64149e-08 1.42272e-07 0
          9.99763e-08 1.45063e-07 0 1.03547e-07 1.48494e-07 0 1.07126e-07 1.52568e-07 0 1.10714e-07 1.57282e-07 0
          0 0 0 4.11277e-08 4.18722e-08 0 4.68209e-08 2.32771e-08 0 7.32893e-08 8.20432e-08 0
          7.10612e-08 5.93876e-08 0 6.24278e-08 3.10362e-08 0 9.64847e-08 1.20513e-07 0 8.63355e-08 9.3797e-08 0
          6.97808e-08 6.1385e-08 0 4.68209e-08 2.32771e-08 0 1.10714e-07 1.57282e-07 0 9.26435e-08 1.26505e-07 0
          6.81677e-08 9.00327e-08 0 3.72865e-08 4.78643e-08 0 0 0 0 0 0 0
          3.72865e-08 4.78643e-08 0 4.58593e-08 4.55648e-08 0 6.81677e-08 9.00327e-08 0 7.48608e-08 8.90624e-08 0
          8.17218e-08 8.88835e-08 0 9.26435e-08 1.26505e-07 0 9.74569e-08 1.26864e-07 0 1.02438e-07 1.28014e-07 0
          1.07588e-07 1.29956e-07 0 1.10714e-07 1.57282e-07 0 1.13648e-07 1.5897e-07 0 1.16749e-07 1.61449e-07 0
          1.20019e-07 1.6472e-07 0 1.23457e-07 1.68782e-07 0 0 0 0 4.58593e-08 4.55648e-08 0
          5.21353e-08 2.50829e-08 0 8.17218e-08 8.88835e-08 0 7.91162e-08 6.42344e-08 0 6.95138e-08 3.34439e-08 0
          1.07588e-07 1.29956e-07 0 9.61003e-08 1.0114e-07 0 7.76162e-08 6.6182e-08 0 5.21353e-08 2.50829e-08 0
          1.23457e-07 1.68782e-07 0 1.03088e-07 1.35799e-07 0 7.57219e-08 9.6674e-08 0 4.13593e-08 5.14077e-08 0
          0 0 0 0 0 0 4.13593e-08 5.14077e-08 0 5.01134e-08 4.81449e-08 0
          7.57219e-08 9.6674e-08 0 8.23772e-08 9.47568e-08 0 8.93198e-08 9.37429e-08 0 1.03088e-07 1.35799e-07 0
          1.07644e-07 1.35227e-07 0 1.12488e-07 1.35559e-07 0 1.17619e-07 1.36794e-07 0 1.23457e-07 1.68782e-07 0
          1.25914e-07 1.69556e-07 0 1.2866e-07 1.71234e-07 0 1.31692e-07 1.73814e-07 0 1.35012e-07 1.77298e-07 0
          0 0 0 5.01134e-08 4.81449e-08 0 5.69769e-08 2.63974e-08 0 8.93198e-08 9.37429e-08 0
          8.64244e-08 6.7696e-08 0 7.59692e-08 3.51965e-08 0 1.17619e-07 1.36794e-07 0 1.04965e-07 1.06448e-07 0
          8.47509e-08 6.96489e-08 0 5.69769e-08 2.63974e-08 0 1.35012e-07 1.77298e-07 0 1.12599e-07 1.42652e-07 0
          8.26257e-08 1.01554e-07 0 4.50928e-08 5.40034e-08 0 0 0 0 0 0 0
          4.50928e-08 5.40034e-08 0 5.39088e-08 4.98299e-08 0 8.26257e-08 1.01554e-07 0 8.9166e-08 9.87659e-08 0
          9.61007e-08 9.69664e-08 0 1.12599e-07 1.42652e-07 0 1.16863e-07 1.41249e-07 0 1.21522e-07 1.40835e-07 0
          1.26576e-07 1.41409e-07 0 1.35012e-07 1.77298e-07 0 1.37001e-07 1.7728e-07 0 1.39384e-07 1.78251e-07 0
          1.42162e-07 1.8021e-07 0 1.45334e-07 1.83159e-07 0 0 0 0 5.39088e-08 4.98299e-08 0
          6.13321e-08 2.72728e-08 0 9.61007e-08 9.69664e-08 0 9.29789e-08 6.99927e-08 0 8.17762e-08 3.63637e-08 0
          1.26576e-07 1.41409e-07 0 1.12909e-07 1.10019e-07 0 9.11609e-08 7.19736e-08 0 6.13321e-08 2.72728e-08 0
          1.45334e-07 1.83159e-07 0 1.21122e-07 1.47352e-07 0 8.88288e-08 1.0489e-07 0 4.84548e-08 5.57726e-08 0
          0 0 0 0 0 0 4.84548e-08 5.57726e-08 0 5.7184e-08 5.07231e-08 0
          8.88288e-08 1.0489e-07 0 9.5139e-08 1.01284e-07 0 1.0195e-07 9.873e-08 0 1.21122e-07 1.47352e-07 0
          1.25013e-07 1.45189e-07 0 1.29405e-07 1.44078e-07 0 1.34297e-07 1.44021e-07 0 1.45334e-07 1.83159e-07 0
          1.46806e-07 1.82439e-07 0 1.48779e-07 1.82771e-07 0 1.51253e-07 1.84157e-07 0 1.54227e-07 1.86595e-07 0
          0 0 0 5.7184e-08 5.07231e-08 0 6.51204e-08 2.77309e-08 0 1.0195e-07 9.873e-08 0
          9.86609e-08 7.12292e-08 0 8.68272e-08 3.69746e-08 0 1.34297e-07 1.44021e-07 0 1.19783e-07 1.12011e-07 0
          9.67242e-08 7.32479e-08 0 6.51204e-08 2.77309e-08 0 1.54227e-07 1.86595e-07 0 1.28487e-07 1.50077e-07 0
          9.42029e-08 1.06805e-07 0 5.13739e-08 5.67794e-08 0 0 0 0 0 0 0
          5.13739e-08 5.67794e-08 0 5.98522e-08 5.09009e-08 0 9.42029e-08 1.06805e-07 0 1.00154e-07 1.02439e-07 0
          1.06713e-07 9.91683e-08 0 1.28487e-07 1.50077e-07 0 1.31912e-07 1.47223e-07 0 1.35943e-07 1.45465e-07 0
          1.40583e-07 1.44802e-07 0 1.54227e-07 1.86595e-07 0 1.55124e-07 1.85253e-07 0 1.56629e-07 1.85007e-07 0
          1.58741e-07 1.85857e-07 0 1.61461e-07 1.87802e-07 0 0 0 0 5.98522e-08 5.09009e-08 0
          6.82399e-08 2.77904e-08 0 1.06713e-07 9.91683e-08 0 1.03318e-07 7.14858e-08 0 9.09865e-08 3.70539e-08 0
          1.40583e-07 1.44802e-07 0 1.25404e-07 1.12548e-07 0 1.0129e-07 7.35437e-08 0 6.82399e-08 2.77904e-08 0
          1.61461e-07 1.87802e-07 0 1.345e-07 1.50976e-07 0 9.86026e-08 1.074e-07 0 5.37693e-08 5.70747e-08 0
          0 0 0 0 0 0 5.37693e-08 5.70747e-08 0 6.18279e-08 5.04346e-08 0
          9.86026e-08 1.074e-07 0 1.04065e-07 1.02345e-07 0 1.10241e-07 9.8407e-08 0 1.345e-07 1.50976e-07 0
          1.37366e-07 1.47506e-07 0 1.40946e-07 1.45154e-07 0 1.45239e-07 1.43917e-07 0 1.61461e-07 1.87802e-07 0
          1.61731e-07 1.85918e-07 0 1.62714e-07 1.85151e-07 0 1.64411e-07 1.855e-07 0 1.66822e-07 1.86965e-07 0
          0 0 0 6.18279e-08 5.04346e-08 0 7.05903e-08 2.74732e-08 0 1.10241e-07 9.8407e-08 0
          1.068e-07 7.0841e-08 0 9.41204e-08 3.66309e-08 0 1.45239e-07 1.43917e-07 0 1.29595e-07 1.11747e-07 0
          1.04712e-07 7.29321e-08 0 7.05903e-08 2.74732e-08 0 1.66822e-07 1.86965e-07 0 1.38975e-07 1.5019e-07 0
          1.01889e-07 1.06771e-07 0 5.55642e-08 5.67077e-08 0 0 0 0 0 0 0
          5.55642e-08 5.67077e-08 0 6.30373e-08 4.93949e-08 0 1.01889e-07 1.06771e-07 0 1.06738e-07 1.01114e-07 0
          1.12404e-07 9.65717e-08 0 1.38975e-07 1.5019e-07 0 1.41201e-07 1.46189e-07 0 1.44242e-07 1.43303e-07 0
          1.48099e-07 1.4153e-07 0 1.66822e-07 1.86965e-07 0 1.66424e-07 1.8462e-07 0 1.66841e-07 1.83389e-07 0
          1.68074e-07 1.83273e-07 0 1.70123e-07 1.84271e-07 0 0 0 0 6.30373e-08 4.93949e-08 0
          7.20819e-08 2.68059e-08 0 1.12404e-07 9.65717e-08 0 1.08976e-07 6.93767e-08 0 9.61092e-08 3.57412e-08 0
          1.48099e-07 1.4153e-07 0 1.32199e-07 1.09729e-07 0 1.0686e-07 7.14879e-08 0 7.20819e-08 2.68059e-08 0
          1.70123e-07 1.84271e-07 0 1.41751e-07 1.47864e-07 0 1.0394e-07 1.05017e-07 0 5.66896e-08 5.57286e-08 0
          0 0 0 0 0 0 5.66896e-08 5.57286e-08 0 6.34209e-08 4.78532e-08 0
          1.0394e-07 1.05017e-07 0 1.08063e-07 9.88582e-08 0 1.13096e-07 9.37887e-08 0 1.41751e-07 1.47864e-07 0
          1.43266e-07 1.43423e-07 0 1.45691e-07 1.4007e-07 0 1.49025e-07 1.37806e-07 0 1.70123e-07 1.84271e-07 0
          1.6903e-07 1.81547e-07 0 1.68847e-07 1.79911e-07 0 1.69573e-07 1.79364e-07 0 1.71209e-07 1.79906e-07 0
          0 0 0 6.34209e-08 4.78532e-08 0 7.26383e-08 2.58199e-08 0 1.13096e-07 9.37887e-08 0
          1.09735e-07 6.71782e-08 0 9.6851e-08 3.44265e-08 0 1.49025e-07 1.37806e-07 0 1.33085e-07 1.06619e-07 0
          1.07623e-07 6.929e-08 0 7.26383e-08 2.58199e-08 0 1.71209e-07 1.79906e-07 0 1.4269e-07 1.44142e-07 0
          1.04649e-07 1.02236e-07 0 5.70857e-08 5.41885e-08 0 0 0 0 0 0 0
          5.70857e-08 5.41885e-08 0 6.29333e-08 4.58802e-08 0 1.04649e-07 1.02236e-07 0 1.07948e-07 9.56894e-08 0
          1.12237e-07 9.01835e-08 0 1.4269e-07 1.44142e-07 0 1.43441e-07 1.39357e-07 0 1.45181e-07 1.35613e-07 0
          1.4791e-07 1.3291e-07 0 1.71209e-07 1.79906e-07 0 1.69411e-07 1.76884e-07 0 1.68603e-07 1.74902e-07 0
          1.68784e-07 1.7396e-07 0 1.69954e-07 1.74059e-07 0 0 0 0 6.29333e-08 4.58802e-08 0
          7.2196e-08 2.45502e-08 0 1.12237e-07 9.01835e-08 0 1.08987e-07 6.43334e-08 0 9.62614e-08 3.27336e-08 0
          1.4791e-07 1.3291e-07 0 1.32147e-07 1.0254e-07 0 1.06909e-07 6.64199e-08 0 7.2196e-08 2.45502e-08 0
          1.69954e-07 1.74059e-07 0 1.41678e-07 1.39169e-07 0 1.03927e-07 9.85293e-08 0 5.67008e-08 5.21396e-08 0
          0 0 0 0 0 0 5.67008e-08 5.21396e-08 0 6.15423e-08 4.35454e-08 0
          1.03927e-07 9.85293e-08 0 1.06321e-07 9.17193e-08 0 1.09767e-07 8.58799e-08 0 1.41678e-07 1.39169e-07 0
          1.41625e-07 1.34143e-07 0 1.42624e-07 1.30088e-07 0 1.44673e-07 1.27003e-07 0 1.69954e-07 1.74059e-07 0
          1.67455e-07 1.70818e-07 0 1.66006e-07 1.68547e-07 0 1.65608e-07 1.67246e-07 0 1.66262e-07 1.66916e-07 0
          0 0 0 6.15423e-08 4.35454e-08 0 7.07042e-08 2.30344e-08 0 1.09767e-07 8.58799e-08 0
          1.06661e-07 6.0931e-08 0 9.42723e-08 3.07125e-08 0 1.44673e-07 1.27003e-07 0 1.293e-07 9.76167e-08 0
          1.04644e-07 6.29604e-08 0 7.07042e-08 2.30344e-08 0 1.66262e-07 1.66916e-07 0 1.38622e-07 1.33092e-07 0
          1.01698e-07 9.39973e-08 0 5.54907e-08 4.96335e-08 0 0 0 0 0 0 0
          5.54907e-08 4.96335e-08 0 5.92263e-08 4.09162e-08 0 1.01698e-07 9.39973e-08 0 1.03126e-07 8.70571e-08 0
          1.05644e-07 8.09982e-08 0 1.38622e-07 1.33092e-07 0 1.37743e-07 1.27928e-07 0 1.37954e-07 1.23646e-07 0
          1.39253e-07 1.20246e-07 0 1.66262e-07 1.66916e-07 0 1.63076e-07 1.6353e-07 0 1.60979e-07 1.61025e-07 0
          1.59972e-07 1.59401e-07 0 1.60054e-07 1.58659e-07 0 0 0 0 5.92263e-08 4.09162e-08 0
          6.81222e-08 2.13119e-08 0 1.05644e-07 8.09982e-08 0 1.02705e-07 5.70593e-08 0 9.08295e-08 2.84158e-08 0
          1.39253e-07 1.20246e-07 0 1.24479e-07 9.19725e-08 0 1.00768e-07 5.89945e-08 0 6.81222e-08 2.13119e-08 0
          1.60054e-07 1.58659e-07 0 1.33444e-07 1.26051e-07 0 9.78985e-08 8.87388e-08 0 5.34171e-08 4.67217e-08 0
          0 0 0 0 0 0 5.34171e-08 4.67217e-08 0 5.59723e-08 3.80573e-08 0
          9.78985e-08 8.87388e-08 0 9.83202e-08 8.18087e-08 0 9.98417e-08 7.56544e-08 0 1.33444e-07 1.26051e-07 0
          1.31732e-07 1.20855e-07 0 1.3112e-07 1.16435e-07 0 1.31608e-07 1.12791e-07 0 1.60054e-07 1.58659e-07 0
          1.56209e-07 1.55197e-07 0 1.53463e-07 1.52512e-07 0 1.51817e-07 1.50602e-07 0 1.51271e-07 1.49468e-07 0
          0 0 0 5.59723e-08 3.80573e-08 0 6.44177e-08 1.94232e-08 0 9.98417e-08 7.56544e-08 0
          9.70753e-08 5.28053e-08 0 8.58903e-08 2.58976e-08 0 1.31608e-07 1.12791e-07 0 1.1763e-07 8.57271e-08 0
          9.52331e-08 5.46044e-08 0 6.44177e-08 1.94232e-08 0 1.51271e-07 1.49468e-07 0 1.26081e-07 1.18189e-07 0
          9.24729e-08 8.28509e-08 0 5.04458e-08 4.34548e-08 0 0 0 0 0 0 0
          5.04458e-08 4.34548e-08 0 5.17742e-08 3.50303e-08 0 9.24729e-08 8.28509e-08 0 9.18688e-08 7.60763e-08 0
          9.23431e-08 6.99596e-08 0 1.26081e-07 1.18189e-07 0 1.23545e-07 1.13064e-07 0 1.22086e-07 1.08597e-07 0
          1.21707e-07 1.04788e-07 0 1.51271e-07 1.49468e-07 0 1.46802e-07 1.45993e-07 0 1.43411e-07 1.43175e-07 0
          1.41099e-07 1.41016e-07 0 1.39865e-07 1.39515e-07 0 0 0 0 5.17742e-08 3.50303e-08 0
          5.95651e-08 1.74094e-08 0 9.23431e-08 6.99596e-08 0 8.97414e-08 4.82538e-08 0 7.94202e-08 2.32126e-08 0
          1.21707e-07 1.04788e-07 0 1.08712e-07 7.89972e-08 0 8.79986e-08 4.9871e-08 0 5.95651e-08 1.74094e-08 0
          1.39865e-07 1.39515e-07 0 1.16478e-07 1.09639e-07 0 8.53716e-08 7.64284e-08 0 4.65456e-08 3.9882e-08 0
          0 0 0 0 0 0 4.65456e-08 3.9882e-08 0 4.66301e-08 3.18937e-08 0
          8.53716e-08 7.64284e-08 0 8.37442e-08 6.99583e-08 0 8.31389e-08 6.402e-08 0 1.16478e-07 1.09639e-07 0
          1.13139e-07 1.04687e-07 0 1.10822e-07 1.00267e-07 0 1.09526e-07 9.6379e-08 0 1.39865e-07 1.39515e-07 0
          1.34814e-07 1.36081e-07 0 1.30785e-07 1.33179e-07 0 1.27778e-07 1.30809e-07 0 1.25793e-07 1.28971e-07 0
          0 0 0 4.66301e-08 3.18937e-08 0 5.3543e-08 1.53117e-08 0 8.31389e-08 6.402e-08 0
          8.06776e-08 4.34875e-08 0 7.13907e-08 2.04156e-08 0 1.09526e-07 9.6379e-08 0 9.76909e-08 7.18959e-08 0
          7.90297e-08 4.48735e-08 0 5.3543e-08 1.53117e-08 0 1.25793e-07 1.28971e-07 0 1.04583e-07 1.00537e-07 0
          7.65475e-08 6.9564e-08 0 4.16865e-08 3.60517e-08 0 0 0 0 0 0 0
          4.16865e-08 3.60517e-08 0 4.05402e-08 2.87028e-08 0 7.65475e-08 6.9564e-08 0 7.39211e-08 6.35491e-08 0
          7.22226e-08 5.79371e-08 0 1.04583e-07 1.00537e-07 0 1.00476e-07 9.58561e-08 0 9.7298e-08 9.1578e-08 0
          9.50474e-08 8.77028e-08 0 1.25793e-07 1.28971e-07 0 1.20206e-07 1.25624e-07 0 1.15548e-07 1.2268e-07 0
          1.11817e-07 1.20138e-07 0 1.09014e-07 1.18e-07 0 0 0 0 4.05402e-08 2.87028e-08 0
          4.6332e-08 1.3171e-08 0 7.22226e-08 5.79371e-08 0 6.98608e-08 3.85862e-08 0 6.17761e-08 1.75613e-08 0
          9.50474e-08 8.77028e-08 0 8.45318e-08 6.4533e-08 0 6.82933e-08 3.9689e-08 0 4.6332e-08 1.3171e-08 0
          1.09014e-07 1.18e-07 0 9.03451e-08 9.10111e-08 0 6.59529e-08 6.23482e-08 0 3.58379e-08 3.20111e-08 0
          0 0 0 0 0 0 3.58379e-08 3.20111e-08 0 3.35049e-08 2.55106e-08 0
          6.59529e-08 6.23482e-08 0 6.23731e-08 5.69402e-08 0 5.95873e-08 5.18084e-08 0 9.03451e-08 9.10111e-08 0
          8.55185e-08 8.66958e-08 0 8.14858e-08 8.26565e-08 0 7.82471e-08 7.88935e-08 0 1.09014e-07 1.18e-07 0
          1.02941e-07 1.14777e-07 0 9.76615e-08 1.11831e-07 0 9.3176e-08 1.0916e-07 0 8.94845e-08 1.06766e-07 0
          0 0 0 3.35049e-08 2.55106e-08 0 3.79124e-08 1.1028e-08 0 5.95873e-08 5.18084e-08 0
          5.7267e-08 3.3628e-08 0 5.05499e-08 1.4704e-08 0 7.82471e-08 7.88935e-08 0 6.91992e-08 5.70153e-08 0
          5.57543e-08 3.43934e-08 0 3.79124e-08 1.1028e-08 0 8.94845e-08 1.06766e-07 0 7.37088e-08 8.11898e-08 0
          5.35362e-08 5.48701e-08 0 2.89666e-08 2.78069e-08 0 0 0 0 0 0 0
          2.89666e-08 2.78069e-08 0 2.5522e-08 2.23674e-08 0 5.35362e-08 5.48701e-08 0 4.90689e-08 5.02203e-08 0
          4.52205e-08 4.57283e-08 0 7.37088e-08 8.11898e-08 0 6.82188e-08 7.73297e-08 0 6.33477e-08 7.36273e-08 0
          5.90956e-08 7.00827e-08 0 8.94845e-08 1.06766e-07 0 8.29717e-08 1.03695e-07 0 7.70779e-08 1.00783e-07 0
          7.1803e-08 9.80278e-08 0 6.71471e-08 9.54306e-08 0 0 0 0 2.5522e-08 2.23674e-08 0
          2.82609e-08 8.92328e-09 0 4.52205e-08 4.57283e-08 0 4.28668e-08 2.86887e-08 0 3.76813e-08 1.18977e-08 0
          5.90956e-08 7.00827e-08 0 5.16491e-08 4.94476e-08 0 4.13709e-08 2.90612e-08 0 2.82609e-08 8.92328e-09 0
          6.71471e-08 9.54306e-08 0 5.4608e-08 7.12001e-08 0 3.92371e-08 4.72181e-08 0 2.10344e-08 2.34848e-08 0
          0 0 0 0 0 0 2.10344e-08 2.34848e-08 0 1.65841e-08 1.93223e-08 0
          3.92371e-08 4.72181e-08 0 3.39674e-08 4.34771e-08 0 2.90999e-08 3.97896e-08 0 5.4608e-08 7.12001e-08 0
          4.85189e-08 6.78804e-08 0 4.28321e-08 6.46143e-08 0 3.75476e-08 6.14017e-08 0 6.71471e-08 9.54306e-08 0
          6.02387e-08 9.25323e-08 0 5.37325e-08 8.96876e-08 0 4.76286e-08 8.68963e-08 0 4.19271e-08 8.41587e-08 0
          0 0 0 1.65841e-08 1.93223e-08 0 1.73476e-08 6.89698e-09 0 2.90999e-08 3.97896e-08 0
          2.66196e-08 2.38431e-08 0 2.31302e-08 9.19597e-09 0 3.75476e-08 6.14017e-08 0 3.18233e-08 4.19342e-08 0
          2.509e-08 2.37659e-08 0 1.73476e-08 6.89698e-09 0 4.19271e-08 8.41587e-08 0 3.29589e-08 6.11701e-08 0
          2.29817e-08 3.94808e-08 0 1.19954e-08 1.90908e-08 0 0 0 0 0 0 0
          1.19954e-08 1.90908e-08 0 6.67452e-09 1.64238e-08 0 2.29817e-08 3.94808e-08 0 1.70118e-08 3.6798e-08 0
          1.11859e-08 3.40853e-08 0 3.29589e-08 6.11701e-08 0 2.634e-08 5.84716e-08 0 1.98651e-08 5.5743e-08 0
          1.35341e-08 5.29845e-08 0 4.19271e-08 8.41587e-08 0 3.46592e-08 8.14443e-08 0 2.75352e-08 7.87e-08 0
          2.05552e-08 7.59257e-08 0 1.37191e-08 7.31213e-08 0 0 0 0 6.67452e-09 1.64238e-08 0
          5.13068e-09 4.98942e-09 0 1.11859e-08 3.40853e-08 0 8.46706e-09 1.91658e-08 0 6.8409e-09 6.65256e-09 0
          1.35341e-08 5.29845e-08 0 9.64027e-09 3.45799e-08 0 6.83914e-09 1.85815e-08 0 5.13068e-09 4.98942e-09 0
          1.37191e-08 7.31213e-08 0 8.65031e-09 5.12316e-08 0 4.6742e-09 3.17482e-08 0 1.79077e-09 1.4671e-08 0
          0 0 0 0 0 0 1.79077e-09 1.4671e-08 0 -4.23706e-09 1.37207e-08 0
          4.6742e-09 3.17482e-08 0 -1.8786e-09 3.02728e-08 0 -8.58731e-09 2.87112e-08 0 8.65031e-09 5.12316e-08 0
          1.57253e-09 4.92313e-08 0 -5.66117e-09 4.71446e-08 0 -1.30508e-08 4.49715e-08 0 1.37191e-08 7.31213e-08 0
          6.11632e-09 7.05959e-08 0 -1.64235e-09 6.79842e-08 0 -9.55694e-09 6.52861e-08 0 -1.76274e-08 6.25017e-08 0
          0 0 0 -4.23706e-09 1.37207e-08 0 -8.45027e-09 3.24128e-09 0 -8.58731e-09 2.87112e-08 0
          -1.16771e-08 1.47321e-08 0 -1.1267e-08 4.3217e-09 0 -1.30508e-08 4.49715e-08 0 -1.50172e-08 2.74927e-08 0
          -1.34837e-08 1.35827e-08 0 -8.45027e-09 3.24128e-09 0 -1.76274e-08 6.25017e-08 0 -1.84704e-08 4.15232e-08 0
          -1.58135e-08 2.41135e-08 0 -9.65669e-09 1.02724e-08 0 0 0 0 0 0 0
          -9.65669e-09 1.02724e-08 0 -1.62022e-08 1.12639e-08 0 -1.58135e-08 2.41135e-08 0 -2.28207e-08 2.39956e-08 0
          -3.03249e-08 2.37692e-08 0 -1.84704e-08 4.15232e-08 0 -2.59392e-08 4.02961e-08 0 -3.39051e-08 3.89603e-08 0
          -4.23682e-08 3.75158e-08 0 -1.76274e-08 6.25017e-08 0 -2.55579e-08 6.01652e-08 0 -3.39854e-08 5.772e-08 0
          -4.29101e-08 5.51663e-08 0 -5.23319e-08 5.25039e-08 0 0 0 0 -1.62022e-08 1.12639e-08 0
          -2.34844e-08 1.69406e-09 0 -3.03249e-08 2.37692e-08 0 -3.39421e-08 1.06197e-08 0 -3.13126e-08 2.25875e-09 0
          -4.23682e-08 3.75158e-08 0 -4.23203e-08 2.07868e-08 0 -3.60257e-08 8.84623e-09 0 -2.34844e-08 1.69406e-09 0
          -5.23319e-08 5.25039e-08 0 -4.8619e-08 3.21953e-08 0 -3.86593e-08 1.66751e-08 0 -2.2453e-08 5.94335e-09 0
          0 0 0 0 0 0 -2.2453e-08 5.94335e-09 0 -2.93049e-08 9.10854e-09 0
          -3.86593e-08 1.66751e-08 0 -4.5986e-08 1.80685e-08 0 -5.41931e-08 1.93725e-08 0 -4.8619e-08 3.21953e-08 0
          -5.64204e-08 3.18169e-08 0 -6.51023e-08 3.13491e-08 0 -7.46646e-08 3.07918e-08 0 -5.23319e-08 5.25039e-08 0
          -6.06081e-08 5.03537e-08 0 -6.97648e-08 4.81141e-08 0 -7.98019e-08 4.5785e-08 0 -9.07195e-08 4.33665e-08 0
          0 0 0 -2.93049e-08 9.10854e-09 0 -4.01065e-08 3.90746e-10 0 -5.41931e-08 1.93725e-08 0
          -5.8524e-08 6.91082e-09 0 -5.34754e-08 5.20994e-10 0 -7.46646e-08 3.07918e-08 0 -7.25248e-08 1.45863e-08 0
          -6.10055e-08 4.4526e-09 0 -4.01065e-08 3.90746e-10 0 -9.07195e-08 4.33665e-08 0 -8.2109e-08 2.34171e-08 0
          -6.41189e-08 9.53959e-09 0 -3.67492e-08 1.73388e-09 0 0 0 0 0 0 0
          -3.67492e-08 1.73388e-09 0 -4.36798e-08 7.31658e-09 0 -6.41189e-08 9.53959e-09 0 -7.16319e-08 1.26065e-08 0
          -8.04538e-08 1.5653e-08 0 -8.2109e-08 2.34171e-08 0 -9.02044e-08 2.39683e-08 0 -9.96087e-08 2.4499e-08 0
          -1.10322e-07 2.50093e-08 0 -9.07195e-08 4.33665e-08 0 -9.93974e-08 4.14019e-08 0 -1.09384e-07 3.94168e-08 0
          -1.2068e-07 3.74114e-08 0 -1.33284e-07 3.53855e-08 0 0 0 0 -4.36798e-08 7.31658e-09 0
          -5.85251e-08 -6.23579e-10 0 -8.04538e-08 1.5653e-08 0 -8.57265e-08 3.69392e-09 0 -7.80335e-08 -8.31439e-10 0
          -1.10322e-07 2.50093e-08 0 -1.06022e-07 9.03128e-09 0 -8.87564e-08 4.86985e-10 0 -5.85251e-08 -6.23579e-10 0
          -1.33284e-07 3.53855e-08 0 -1.19412e-07 1.53885e-08 0 -9.25735e-08 2.82527e-09 0 -5.27696e-08 -2.30423e-09 0
          0 0 0 0 0 0 -5.27696e-08 -2.30423e-09 0 -5.95461e-08 5.96083e-09 0
          -9.25735e-08 2.82527e-09 0 -1.00156e-07 7.74497e-09 0 -1.09529e-07 1.27738e-08 0 -1.19412e-07 1.53885e-08 0
          -1.278e-07 1.69628e-08 0 -1.37979e-07 1.86463e-08 0 -1.49947e-07 2.04388e-08 0 -1.33284e-07 3.53855e-08 0
          -1.42478e-07 3.36145e-08 0 -1.53463e-07 3.19525e-08 0 -1.66238e-07 3.03997e-08 0 -1.80803e-07 2.8956e-08 0
          0 0 0 -5.95461e-08 5.96083e-09 0 -7.90748e-08 -1.30121e-09 0 -1.09529e-07 1.27738e-08 0
          -1.16036e-07 1.06686e-09 0 -1.05433e-07 -1.73494e-09 0 -1.49947e-07 2.04388e-08 0 -1.43433e-07 4.28704e-09 0
          -1.19809e-07 -2.95964e-09 0 -7.90748e-08 -1.30121e-09 0 -1.80803e-07 2.8956e-08 0 -1.61267e-07 8.35933e-09 0
          -1.24621e-07 -3.33222e-09 0 -7.08652e-08 -6.11866e-09 0 0 0 0 0 0 0
          -7.08652e-08 -6.11866e-09 0 -7.72713e-08 5.13088e-09 0 -1.24621e-07 -3.33222e-09 0 -1.32199e-07 3.65182e-09 0
          -1.42122e-07 1.09504e-08 0 -1.61267e-07 8.35933e-09 0 -1.70017e-07 1.10779e-08 0 -1.81112e-07 1.4111e-08 0
          -1.94551e-07 1.74586e-08 0 -1.80803e-07 2.8956e-08 0 -1.90725e-07 2.7409e-08 0 -2.02992e-07 2.61766e-08 0
          -2.17604e-07 2.52587e-08 0 -2.3456e-07 2.46555e-08 0 0 0 0 -7.72713e-08 5.13088e-09 0
          -1.02321e-07 -1.59248e-09 0 -1.42122e-07 1.09504e-08 0 -1.50269e-07 -8.61155e-10 0 -1.36428e-07 -2.12331e-09 0
          -1.94551e-07 1.74586e-08 0 -1.85797e-07 5.58828e-10 0 -1.55053e-07 -5.79154e-09 0 -1.02321e-07 -1.59248e-09 0
          -2.3456e-07 2.46555e-08 0 -2.08903e-07 2.66747e-09 0 -1.61258e-07 -8.77111e-09 0 -9.16232e-08 -9.66027e-09 0
          0 0 0 0 0 0 -9.16232e-08 -9.66027e-09 0 -9.75099e-08 4.94414e-09 0
          -1.61258e-07 -8.77111e-09 0 -1.68862e-07 5.51299e-10 0 -1.79486e-07 1.04971e-08 0 -2.08903e-07 2.66747e-09 0
          -2.18226e-07 6.70788e-09 0 -2.30568e-07 1.13717e-08 0 -2.4593e-07 1.66589e-08 0 -2.3456e-07 2.46555e-08 0
          -2.45601e-07 2.34139e-08 0 -2.59661e-07 2.27957e-08 0 -2.76741e-07 2.28009e-08 0 -2.9684e-07 2.34295e-08 0
          0 0 0 -9.75099e-08 4.94414e-09 0 -1.29293e-07 -1.45071e-09 0 -1.79486e-07 1.04971e-08 0
          -1.89909e-07 -1.96755e-09 0 -1.72391e-07 -1.93428e-09 0 -2.4593e-07 1.66589e-08 0 -2.34991e-07 -1.87557e-09 0
          -1.96112e-07 -7.9121e-09 0 -1.29293e-07 -1.45071e-09 0 -2.9684e-07 2.34295e-08 0 -2.64539e-07 -1.17477e-09 0
          -2.04299e-07 -1.32811e-08 0 -1.1612e-07 -1.28895e-08 0 0 0 0 0 0 0
          -1.1612e-07 -1.28895e-08 0 -1.21544e-07 5.5802e-09 0 -2.04299e-07 -1.32811e-08 0 -2.1222e-07 -1.21244e-09 0
          -2.24087e-07 1.19515e-08 0 -2.64539e-07 -1.17477e-09 0 -2.74957e-07 4.49284e-09 0 -2.8932e-07 1.12557e-08 0
          -3.07629e-07 1.91139e-08 0 -2.9684e-07 2.34295e-08 0 -3.09753e-07 2.2696e-08 0 -3.26613e-07 2.30579e-08 0
          -3.47418e-07 2.4515e-08 0 -3.72169e-07 2.70674e-08 0 0 0 0 -1.21544e-07 5.5802e-09 0
          -1.62089e-07 -8.50666e-10 0 -2.24087e-07 1.19515e-08 0 -2.37956e-07 -2.10025e-09 0 -2.16118e-07 -1.13422e-09 0
          -3.07629e-07 1.91139e-08 0 -2.94821e-07 -2.55872e-09 0 -2.46307e-07 -9.21358e-09 0 -1.62089e-07 -8.50666e-10 0
          -3.72169e-07 2.70674e-08 0 -3.32685e-07 -2.22609e-09 0 -2.57495e-07 -1.65018e-08 0 -1.466e-07 -1.57598e-08 0
          0 0 0 0 0 0 -1.466e-07 -1.57598e-08 0 -1.523e-07 7.45781e-09 0
          -2.57495e-07 -1.65018e-08 0 -2.66759e-07 -9.21751e-10 0 -2.81577e-07 1.655e-08 0 -3.32685e-07 -2.22609e-09 0
          -3.45513e-07 5.71646e-09 0 -3.63895e-07 1.55507e-08 0 -3.87831e-07 2.72767e-08 0 -3.72169e-07 2.70674e-08 0
          -3.88562e-07 2.73724e-08 0 -4.10508e-07 2.95692e-08 0 -4.38009e-07 3.36576e-08 0 -4.71063e-07 3.96378e-08 0
          0 0 0 -1.523e-07 7.45781e-09 0 -2.05774e-07 1.37798e-10 0 -2.81577e-07 1.655e-08 0
          -3.01641e-07 -9.20638e-10 0 -2.74366e-07 1.83731e-10 0 -3.87831e-07 2.72767e-08 0 -3.74484e-07 -3.44656e-10 0
          -3.13799e-07 -9.39095e-09 0 -2.05774e-07 1.37798e-10 0 -4.71063e-07 3.96378e-08 0 -4.24305e-07 1.86575e-09 0
          -3.30209e-07 -1.73312e-08 0 -1.88774e-07 -1.79531e-08 0 0 0 0 0 0 0
          -1.88774e-07 -1.79531e-08 0 -1.98435e-07 1.24694e-08 0 -3.30209e-07 -1.73312e-08 0 -3.44587e-07 3.90496e-09 0
          -3.68622e-07 2.86187e-08 0 -4.24305e-07 1.86575e-09 0 -4.434e-07 1.39155e-08 0 -4.72153e-07 2.94429e-08 0
          -5.10563e-07 4.84479e-08 0 -4.71063e-07 3.96378e-08 0 -4.94875e-07 4.25011e-08 0 -5.28344e-07 4.88421e-08 0
          -5.71471e-07 5.86607e-08 0 -6.24255e-07 7.19569e-08 0 0 0 0 -1.98435e-07 1.24694e-08 0
          -2.76818e-07 8.2149e-10 0 -3.68622e-07 2.86187e-08 0 -4.04532e-07 3.35414e-09 0 -3.69091e-07 1.09532e-09 0
          -5.10563e-07 4.84479e-08 0 -5.03999e-07 9.56664e-09 0 -4.26084e-07 -6.30883e-09 0 -2.76818e-07 8.2149e-10 0
          -6.24255e-07 7.19569e-08 0 -5.75219e-07 1.9459e-08 0 -4.54831e-07 -1.00331e-08 0 -2.63091e-07 -1.65195e-08 0
          0 0 0 0 0 0 -2.63091e-07 -1.65195e-08 0 -3.05427e-07 3.8327e-08 0
          -4.54831e-07 -1.00331e-08 0 -4.97745e-07 2.89826e-08 0 -5.61799e-07 7.21975e-08 0 -5.75219e-07 1.9459e-08 0
          -6.18712e-07 4.26439e-08 0 -6.83344e-07 7.00282e-08 0 -7.69116e-07 1.01612e-07 0 -6.24255e-07 7.19569e-08 0
          -6.68327e-07 7.93111e-08 0 -7.33538e-07 9.08646e-08 0 -8.19888e-07 1.06617e-07 0 -9.27377e-07 1.26569e-07 0
          8.01172e-08 1.22848e-07 0 9.51645e-08 1.54046e-07 0 8.43925e-08 1.27049e-07 0 1.11055e-07 1.86842e-07 0
          9.99921e-08 1.59221e-07 0 8.85339e-08 1.31687e-07 0 1.2779e-07 2.21239e-07 0 1.16435e-07 1.92991e-07 0
          1.04686e-07 1.64832e-07 0 9.25414e-08 1.36761e-07 0 1.45367e-07 2.57234e-07 0 1.33722e-07 2.28362e-07 0
          1.21681e-07 1.99577e-07 0 1.09246e-07 1.70881e-07 0 9.64149e-08 1.42272e-07 0 9.64149e-08 1.42272e-07 0
          1.09246e-07 1.70881e-07 0 1.13766e-07 1.75796e-07 0 1.21681e-07 1.99577e-07 0 1.26836e-07 2.05201e-07 0
          1.31741e-07 2.10471e-07 0 1.33722e-07 2.28362e-07 0 1.39511e-07 2.34694e-07 0 1.4505e-07 2.40672e-07 0
          1.5034e-07 2.46296e-07 0 1.45367e-07 2.57234e-07 0 1.51791e-07 2.64275e-07 0 1.57964e-07 2.70961e-07 0
          1.63888e-07 2.77294e-07 0 1.69562e-07 2.83272e-07 0 9.64149e-08 1.42272e-07 0 1.13766e-07 1.75796e-07 0
          9.99763e-08 1.45063e-07 0 1.31741e-07 2.10471e-07 0 1.17812e-07 1.79506e-07 0 1.03547e-07 1.48494e-07 0
          1.5034e-07 2.46296e-07 0 1.36271e-07 2.151e-07 0 1.21866e-07 1.83857e-07 0 1.07126e-07 1.52568e-07 0
          1.69562e-07 2.83272e-07 0 1.55353e-07 2.51845e-07 0 1.40809e-07 2.20371e-07 0 1.2593e-07 1.8885e-07 0
          1.10714e-07 1.57282e-07 0 1.10714e-07 1.57282e-07 0 1.2593e-07 1.8885e-07 0 1.29919e-07 1.92655e-07 0
          1.40809e-07 2.20371e-07 0 1.4538e-07 2.24794e-07 0 1.49769e-07 2.28914e-07 0 1.55353e-07 2.51845e-07 0
          1.60506e-07 2.56885e-07 0 1.65475e-07 2.61623e-07 0 1.70261e-07 2.66057e-07 0 1.69562e-07 2.83272e-07 0
          1.75295e-07 2.8893e-07 0 1.80846e-07 2.94285e-07 0 1.86213e-07 2.99336e-07 0 1.91398e-07 3.04085e-07 0
          1.10714e-07 1.57282e-07 0 1.29919e-07 1.92655e-07 0 1.13648e-07 1.5897e-07 0 1.49769e-07 2.28914e-07 0
          1.33388e-07 1.95223e-07 0 1.16749e-07 1.61449e-07 0 1.70261e-07 2.66057e-07 0 1.53772e-07 2.32361e-07 0
          1.37024e-07 1.98582e-07 0 1.20019e-07 1.6472e-07 0 1.91398e-07 3.04085e-07 0 1.74799e-07 2.70384e-07 0
          1.57943e-07 2.366e-07 0 1.40829e-07 2.02733e-07 0 1.23457e-07 1.68782e-07 0 1.23457e-07 1.68782e-07 0
          1.40829e-07 2.02733e-07 0 1.44464e-07 2.05629e-07 0 1.57943e-07 2.366e-07 0 1.62122e-07 2.40022e-07 0
          1.66118e-07 2.43166e-07 0 1.74799e-07 2.70384e-07 0 1.79521e-07 2.74331e-07 0 1.8406e-07 2.78e-07 0
          1.88417e-07 2.81392e-07 0 1.91398e-07 3.04085e-07 0 1.96662e-07 3.08557e-07 0 2.01744e-07 3.12751e-07 0
          2.06644e-07 3.16668e-07 0 2.11361e-07 3.20307e-07 0 1.23457e-07 1.68782e-07 0 1.44464e-07 2.05629e-07 0
          1.25914e-07 1.69556e-07 0 1.66118e-07 2.43166e-07 0 1.47473e-07 2.07228e-07 0 1.2866e-07 1.71234e-07 0
          1.88417e-07 2.81392e-07 0 1.69676e-07 2.45589e-07 0 1.50768e-07 2.0973e-07 0 1.31692e-07 1.73814e-07 0
          2.11361e-07 3.20307e-07 0 1.92525e-07 2.8464e-07 0 1.73522e-07 2.48916e-07 0 1.54351e-07 2.13135e-07 0
          1.35012e-07 1.77298e-07 0 1.35012e-07 1.77298e-07 0 1.54351e-07 2.13135e-07 0 1.57644e-07 2.15238e-07 0
          1.73522e-07 2.48916e-07 0 1.77314e-07 2.51449e-07 0 1.80906e-07 2.53722e-07 0 1.92525e-07 2.8464e-07 0
          1.96816e-07 2.87602e-07 0 2.00907e-07 2.90305e-07 0 2.04796e-07 2.92748e-07 0 2.11361e-07 3.20307e-07 0
          2.16151e-07 3.23699e-07 0 2.2074e-07 3.26831e-07 0 2.25129e-07 3.29704e-07 0 2.29316e-07 3.32317e-07 0
          1.35012e-07 1.77298e-07 0 1.57644e-07 2.15238e-07 0 1.37001e-07 1.7728e-07 0 1.80906e-07 2.53722e-07 0
          1.60181e-07 2.1598e-07 0 1.39384e-07 1.78251e-07 0 2.04796e-07 2.92748e-07 0 1.8399e-07 2.55222e-07 0
          1.63112e-07 2.1771e-07 0 1.42162e-07 1.8021e-07 0 2.29316e-07 3.32317e-07 0 2.08429e-07 2.95008e-07 0
          1.87469e-07 2.57712e-07 0 1.66438e-07 2.20429e-07 0 1.45334e-07 1.83159e-07 0 1.45334e-07 1.83159e-07 0
          1.66438e-07 2.20429e-07 0 1.6934e-07 2.21817e-07 0 1.87469e-07 2.57712e-07 0 1.90819e-07 2.59434e-07 0
          1.93945e-07 2.60912e-07 0 2.08429e-07 2.95008e-07 0 2.12226e-07 2.97064e-07 0 2.15799e-07 2.98876e-07 0